LAMMPS data file for mol object with MOF-FF params from www.mofplus.org

       425 atoms
       512 bonds
       912 angles
      1536 dihedrals
       192 impropers
         8 atom types
         6 bond types
         9 angle types
        11 dihedral types
         3 improper types

    0.000000    26.030055  xlo xhi
    0.000000    26.030055  ylo yhi
    0.000000    26.030055  zlo zhi

Masses  # O Zn O C C C H Ar

    1    15.9994 # buck6d->(o4_zn4@zn4o)|Zn4O_benz/gaussian->(o4_zn4@zn4o)|Zn4O_benz
    2    65.3800 # buck6d->(zn4_o4@zn4o)|Zn4O_benz/gaussian->(zn4_o4@zn4o)|Zn4O_benz
    3    15.9994 # buck6d->(o2_c1zn1@co2)|Zn4O_benz/gaussian->(o2_c1zn1@co2)|Zn4O_benz
    4    12.0107 # buck6d->(c3_c1o2@co2)|Zn4O_benz/gaussian->(c3_c1o2@co2)|Zn4O_benz
    5    12.0107 # buck6d->(c3_c2h1@ph)|benzene/gaussian->(c3_c2h1@ph)|benzene
    6    12.0107 # buck6d->(c3_c2h1@ph)|benzene/gaussian->(c3_c3@ph)|Zn4O_benz
    7     1.0079 # buck6d->(h1_c1@ph)|benzene/gaussian->(h1_c1@ph)|benzene
    8    39.9480 # buck6d->(ar0_@ar)|ar/gaussian->(ar0_@ar)|ar

Atoms

         1     1     1  -1.78000000    26.004989     0.024998     0.025058 # buck6d->(o4_zn4@zn4o)|Zn4O_benz
         2     1     2   1.42000000     1.109324     1.156998    24.920707 # buck6d->(zn4_o4@zn4o)|Zn4O_benz
         3     1     2   1.42000000     1.109582    24.920408     1.156548 # buck6d->(zn4_o4@zn4o)|Zn4O_benz
         4     1     2   1.42000000    24.873507    24.920581    24.920346 # buck6d->(zn4_o4@zn4o)|Zn4O_benz
         5     1     2   1.42000000    24.869955     1.159610     1.160239 # buck6d->(zn4_o4@zn4o)|Zn4O_benz
         6     1     3  -0.72000000     0.774530    25.257737     3.055473 # buck6d->(o2_c1zn1@co2)|Zn4O_benz
         7     1     4   0.61000000    26.005413     0.025444     3.637756 # buck6d->(c3_c1o2@co2)|Zn4O_benz
         8     1     3  -0.72000000    25.203654     0.824973     3.062019 # buck6d->(o2_c1zn1@co2)|Zn4O_benz
         9     1     3  -0.72000000    22.968124     0.826473     0.825262 # buck6d->(o2_c1zn1@co2)|Zn4O_benz
        10     1     4   0.61000000    22.392365     0.027030     0.023432 # buck6d->(c3_c1o2@co2)|Zn4O_benz
        11     1     3  -0.72000000    22.974632    25.259310    25.254308 # buck6d->(o2_c1zn1@co2)|Zn4O_benz
        12     1     3  -0.72000000    25.209739    25.251550    23.018660 # buck6d->(o2_c1zn1@co2)|Zn4O_benz
        13     1     4   0.61000000    26.010464     0.020219    22.439685 # buck6d->(c3_c1o2@co2)|Zn4O_benz
        14     1     3  -0.72000000     0.776581     0.823423    23.018765 # buck6d->(o2_c1zn1@co2)|Zn4O_benz
        15     1     3  -0.72000000     0.774793    23.018653     0.824134 # buck6d->(o2_c1zn1@co2)|Zn4O_benz
        16     1     4   0.61000000    26.006624    22.439661     0.022908 # buck6d->(c3_c1o2@co2)|Zn4O_benz
        17     1     3  -0.72000000    25.204790    23.018725    25.255416 # buck6d->(o2_c1zn1@co2)|Zn4O_benz
        18     1     3  -0.72000000     0.772349     3.055670    25.257351 # buck6d->(o2_c1zn1@co2)|Zn4O_benz
        19     1     4   0.61000000    26.004456     3.637627     0.026517 # buck6d->(c3_c1o2@co2)|Zn4O_benz
        20     1     3  -0.72000000    25.204351     3.061587     0.827477 # buck6d->(o2_c1zn1@co2)|Zn4O_benz
        21     1     3  -0.72000000     3.011175     0.824007    25.254369 # buck6d->(o2_c1zn1@co2)|Zn4O_benz
        22     1     4   0.61000000     3.590294     0.021409     0.021062 # buck6d->(c3_c1o2@co2)|Zn4O_benz
        23     1     3  -0.72000000     3.011353    25.252786     0.821871 # buck6d->(o2_c1zn1@co2)|Zn4O_benz
        24     1     1  -1.78000000    12.994203    26.029854    26.029866 # buck6d->(o4_zn4@zn4o)|Zn4O_benz
        25     1     2   1.42000000    11.859771    24.893688     1.133848 # buck6d->(zn4_o4@zn4o)|Zn4O_benz
        26     1     2   1.42000000    14.125601     1.133370     1.134035 # buck6d->(zn4_o4@zn4o)|Zn4O_benz
        27     1     2   1.42000000    11.860178     1.134506    24.893926 # buck6d->(zn4_o4@zn4o)|Zn4O_benz
        28     1     2   1.42000000    14.132646    24.898095    24.897825 # buck6d->(zn4_o4@zn4o)|Zn4O_benz
        29     1     3  -0.72000000    16.025893     0.803573     0.803863 # buck6d->(o2_c1zn1@co2)|Zn4O_benz
        30     1     4   0.61000000    16.608401     0.006694     0.004468 # buck6d->(c3_c1o2@co2)|Zn4O_benz
        31     1     3  -0.72000000    16.033260    25.236175    25.232898 # buck6d->(o2_c1zn1@co2)|Zn4O_benz
        32     1     3  -0.72000000    13.801809    25.230587    22.995924 # buck6d->(o2_c1zn1@co2)|Zn4O_benz
        33     1     4   0.61000000    13.002550    26.029666    22.415553 # buck6d->(c3_c1o2@co2)|Zn4O_benz
        34     1     3  -0.72000000    12.200332     0.798058    22.993092 # buck6d->(o2_c1zn1@co2)|Zn4O_benz
        35     1     3  -0.72000000     9.957455     0.797097    25.227109 # buck6d->(o2_c1zn1@co2)|Zn4O_benz
        36     1     4   0.61000000     9.377950    26.027921    26.027162 # buck6d->(c3_c1o2@co2)|Zn4O_benz
        37     1     3  -0.72000000     9.957297    25.225909     0.794478 # buck6d->(o2_c1zn1@co2)|Zn4O_benz
        38     1     3  -0.72000000    13.797799     3.034451     0.801368 # buck6d->(o2_c1zn1@co2)|Zn4O_benz
        39     1     4   0.61000000    13.002004     3.614396    26.028833 # buck6d->(c3_c1o2@co2)|Zn4O_benz
        40     1     3  -0.72000000    12.200906     3.036373    25.229434 # buck6d->(o2_c1zn1@co2)|Zn4O_benz
        41     1     3  -0.72000000    12.201313    22.992968     0.798210 # buck6d->(o2_c1zn1@co2)|Zn4O_benz
        42     1     4   0.61000000    13.004406    22.415547    26.030609 # buck6d->(c3_c1o2@co2)|Zn4O_benz
        43     1     3  -0.72000000    13.804303    22.996053    25.232258 # buck6d->(o2_c1zn1@co2)|Zn4O_benz
        44     1     3  -0.72000000    12.198018    25.230111     3.036051 # buck6d->(o2_c1zn1@co2)|Zn4O_benz
        45     1     4   0.61000000    12.999529    26.028826     3.614453 # buck6d->(c3_c1o2@co2)|Zn4O_benz
        46     1     3  -0.72000000    13.796640     0.800315     3.034855 # buck6d->(o2_c1zn1@co2)|Zn4O_benz
        47     1     1  -1.78000000    26.029722    13.035770     0.000825 # buck6d->(o4_zn4@zn4o)|Zn4O_benz
        48     1     2   1.42000000     1.131364    11.896950    24.899211 # buck6d->(zn4_o4@zn4o)|Zn4O_benz
        49     1     2   1.42000000    24.895364    14.169833    24.894675 # buck6d->(zn4_o4@zn4o)|Zn4O_benz
        50     1     2   1.42000000     1.135839    14.170181     1.134935 # buck6d->(zn4_o4@zn4o)|Zn4O_benz
        51     1     2   1.42000000    24.895817    11.904586     1.134980 # buck6d->(zn4_o4@zn4o)|Zn4O_benz
        52     1     3  -0.72000000    22.993347    13.830503    25.230707 # buck6d->(o2_c1zn1@co2)|Zn4O_benz
        53     1     4   0.61000000    22.415118    13.028823    26.029368 # buck6d->(c3_c1o2@co2)|Zn4O_benz
        54     1     3  -0.72000000    22.994868    12.231908     0.800940 # buck6d->(o2_c1zn1@co2)|Zn4O_benz
        55     1     3  -0.72000000    25.228090    12.234440     3.035787 # buck6d->(o2_c1zn1@co2)|Zn4O_benz
        56     1     4   0.61000000    26.030230    13.030928     3.615417 # buck6d->(c3_c1o2@co2)|Zn4O_benz
        57     1     3  -0.72000000     0.799345    13.832014     3.037076 # buck6d->(o2_c1zn1@co2)|Zn4O_benz
        58     1     3  -0.72000000     3.036615    13.827927     0.799906 # buck6d->(o2_c1zn1@co2)|Zn4O_benz
        59     1     4   0.61000000     3.613966    13.024244     0.002780 # buck6d->(c3_c1o2@co2)|Zn4O_benz
        60     1     3  -0.72000000     3.033381    12.224951    25.233942 # buck6d->(o2_c1zn1@co2)|Zn4O_benz
        61     1     3  -0.72000000    25.233105    16.072508    25.227426 # buck6d->(o2_c1zn1@co2)|Zn4O_benz
        62     1     4   0.61000000    26.031322    16.652025    -0.001584 # buck6d->(c3_c1o2@co2)|Zn4O_benz
        63     1     3  -0.72000000     0.803002    16.072699     0.796092 # buck6d->(o2_c1zn1@co2)|Zn4O_benz
        64     1     3  -0.72000000     0.794036     9.996561    25.235793 # buck6d->(o2_c1zn1@co2)|Zn4O_benz
        65     1     4   0.61000000    26.023793     9.421524     0.007695 # buck6d->(c3_c1o2@co2)|Zn4O_benz
        66     1     3  -0.72000000    25.226399    10.004110     0.806517 # buck6d->(o2_c1zn1@co2)|Zn4O_benz
        67     1     3  -0.72000000     0.798219    12.226288    22.997102 # buck6d->(o2_c1zn1@co2)|Zn4O_benz
        68     1     4   0.61000000    -0.000689    13.025612    22.416567 # buck6d->(c3_c1o2@co2)|Zn4O_benz
        69     1     3  -0.72000000    25.231608    13.828618    22.993975 # buck6d->(o2_c1zn1@co2)|Zn4O_benz
        70     1     1  -1.78000000    13.014846    13.014671     0.000314 # buck6d->(o4_zn4@zn4o)|Zn4O_benz
        71     1     2   1.42000000    11.880364    11.881108    24.896294 # buck6d->(zn4_o4@zn4o)|Zn4O_benz
        72     1     2   1.42000000    14.148074    14.149079    24.895861 # buck6d->(zn4_o4@zn4o)|Zn4O_benz
        73     1     2   1.42000000    14.149142    11.880622     1.134741 # buck6d->(zn4_o4@zn4o)|Zn4O_benz
        74     1     2   1.42000000    11.880987    14.148667     1.134276 # buck6d->(zn4_o4@zn4o)|Zn4O_benz
        75     1     3  -0.72000000    13.814435    16.050848    25.229173 # buck6d->(o2_c1zn1@co2)|Zn4O_benz
        76     1     4   0.61000000    13.014304    16.629193    26.028958 # buck6d->(c3_c1o2@co2)|Zn4O_benz
        77     1     3  -0.72000000    12.214414    16.049666     0.798068 # buck6d->(o2_c1zn1@co2)|Zn4O_benz
        78     1     3  -0.72000000    12.215844    13.816575     3.035801 # buck6d->(o2_c1zn1@co2)|Zn4O_benz
        79     1     4   0.61000000    13.015026    13.016318     3.614822 # buck6d->(c3_c1o2@co2)|Zn4O_benz
        80     1     3  -0.72000000    13.814072    12.215828     3.035924 # buck6d->(o2_c1zn1@co2)|Zn4O_benz
        81     1     3  -0.72000000    13.815441     9.978889     0.800898 # buck6d->(o2_c1zn1@co2)|Zn4O_benz
        82     1     4   0.61000000    13.016907     9.400796    26.029390 # buck6d->(c3_c1o2@co2)|Zn4O_benz
        83     1     3  -0.72000000    12.218170     9.980492    25.229240 # buck6d->(o2_c1zn1@co2)|Zn4O_benz
        84     1     3  -0.72000000    16.048876    13.814123    25.230745 # buck6d->(o2_c1zn1@co2)|Zn4O_benz
        85     1     4   0.61000000    16.628688    13.014595    -0.000032 # buck6d->(c3_c1o2@co2)|Zn4O_benz
        86     1     3  -0.72000000    16.050704    12.214909     0.800463 # buck6d->(o2_c1zn1@co2)|Zn4O_benz
        87     1     3  -0.72000000     9.978583    12.212223    25.232155 # buck6d->(o2_c1zn1@co2)|Zn4O_benz
        88     1     4   0.61000000     9.400346    13.012239     0.002083 # buck6d->(c3_c1o2@co2)|Zn4O_benz
        89     1     3  -0.72000000     9.979988    13.812467     0.800827 # buck6d->(o2_c1zn1@co2)|Zn4O_benz
        90     1     3  -0.72000000    12.212967    12.216322    22.994835 # buck6d->(o2_c1zn1@co2)|Zn4O_benz
        91     1     4   0.61000000    13.013576    13.015094    22.415736 # buck6d->(c3_c1o2@co2)|Zn4O_benz
        92     1     3  -0.72000000    13.814230    13.814026    22.994562 # buck6d->(o2_c1zn1@co2)|Zn4O_benz
        93     1     1  -1.78000000    26.029517    26.030153    13.035860 # buck6d->(o4_zn4@zn4o)|Zn4O_benz
        94     1     2   1.42000000     1.131431    24.898082    11.897693 # buck6d->(zn4_o4@zn4o)|Zn4O_benz
        95     1     2   1.42000000    24.895643     1.133760    11.904188 # buck6d->(zn4_o4@zn4o)|Zn4O_benz
        96     1     2   1.42000000     1.135482     1.134699    14.169892 # buck6d->(zn4_o4@zn4o)|Zn4O_benz
        97     1     2   1.42000000    24.895141    24.894219    14.170196 # buck6d->(zn4_o4@zn4o)|Zn4O_benz
        98     1     3  -0.72000000    22.994667     0.800481    12.232069 # buck6d->(o2_c1zn1@co2)|Zn4O_benz
        99     1     4   0.61000000    22.414912     0.000084    13.030217 # buck6d->(c3_c1o2@co2)|Zn4O_benz
       100     1     3  -0.72000000    22.993139    25.232742    13.833160 # buck6d->(o2_c1zn1@co2)|Zn4O_benz
       101     1     3  -0.72000000    25.236488    25.224290    16.072731 # buck6d->(o2_c1zn1@co2)|Zn4O_benz
       102     1     4   0.61000000     0.003580    26.026555    16.652046 # buck6d->(c3_c1o2@co2)|Zn4O_benz
       103     1     3  -0.72000000     0.802770     0.796569    16.072518 # buck6d->(o2_c1zn1@co2)|Zn4O_benz
       104     1     3  -0.72000000     3.036326     0.798432    13.829461 # buck6d->(o2_c1zn1@co2)|Zn4O_benz
       105     1     4   0.61000000     3.613791    26.029844    13.027380 # buck6d->(c3_c1o2@co2)|Zn4O_benz
       106     1     3  -0.72000000     3.033340    25.230393    12.228553 # buck6d->(o2_c1zn1@co2)|Zn4O_benz
       107     1     3  -0.72000000    25.228122     3.034829    12.232489 # buck6d->(o2_c1zn1@co2)|Zn4O_benz
       108     1     4   0.61000000    26.030367     3.614727    13.028674 # buck6d->(c3_c1o2@co2)|Zn4O_benz
       109     1     3  -0.72000000     0.799565     3.036634    13.829870 # buck6d->(o2_c1zn1@co2)|Zn4O_benz
       110     1     3  -0.72000000     0.796303    22.996176    12.225997 # buck6d->(o2_c1zn1@co2)|Zn4O_benz
       111     1     4   0.61000000    26.026473    22.415814    13.024463 # buck6d->(c3_c1o2@co2)|Zn4O_benz
       112     1     3  -0.72000000    25.228000    22.993372    13.826640 # buck6d->(o2_c1zn1@co2)|Zn4O_benz
       113     1     3  -0.72000000     0.796675    25.235839     9.996977 # buck6d->(o2_c1zn1@co2)|Zn4O_benz
       114     1     4   0.61000000    26.025264     0.006406     9.421690 # buck6d->(c3_c1o2@co2)|Zn4O_benz
       115     1     3  -0.72000000    25.226361     0.803892    10.004035 # buck6d->(o2_c1zn1@co2)|Zn4O_benz
       116     1     1  -1.78000000    13.014621    26.029697    13.014762 # buck6d->(o4_zn4@zn4o)|Zn4O_benz
       117     1     2   1.42000000    14.148970     1.133554    11.880271 # buck6d->(zn4_o4@zn4o)|Zn4O_benz
       118     1     2   1.42000000    11.879889    24.895208    11.881822 # buck6d->(zn4_o4@zn4o)|Zn4O_benz
       119     1     2   1.42000000    11.880931     1.134113    14.148418 # buck6d->(zn4_o4@zn4o)|Zn4O_benz
       120     1     2   1.42000000    14.147818    24.895566    14.149535 # buck6d->(zn4_o4@zn4o)|Zn4O_benz
       121     1     3  -0.72000000    12.214088    22.993912    12.216466 # buck6d->(o2_c1zn1@co2)|Zn4O_benz
       122     1     4   0.61000000    13.013952    22.415053    13.016162 # buck6d->(c3_c1o2@co2)|Zn4O_benz
       123     1     3  -0.72000000    13.814260    22.994113    13.815260 # buck6d->(o2_c1zn1@co2)|Zn4O_benz
       124     1     3  -0.72000000    13.813359    25.228773    16.051104 # buck6d->(o2_c1zn1@co2)|Zn4O_benz
       125     1     4   0.61000000    13.013557    26.029012    16.629257 # buck6d->(c3_c1o2@co2)|Zn4O_benz
       126     1     3  -0.72000000    12.214694     0.799023    16.049561 # buck6d->(o2_c1zn1@co2)|Zn4O_benz
       127     1     3  -0.72000000    12.215495     3.035398    13.814655 # buck6d->(o2_c1zn1@co2)|Zn4O_benz
       128     1     4   0.61000000    13.015998     3.614166    13.015530 # buck6d->(c3_c1o2@co2)|Zn4O_benz
       129     1     3  -0.72000000    13.815885     3.035005    12.216073 # buck6d->(o2_c1zn1@co2)|Zn4O_benz
       130     1     3  -0.72000000     9.978246    25.229073    12.215585 # buck6d->(o2_c1zn1@co2)|Zn4O_benz
       131     1     4   0.61000000     9.400110    26.029498    13.015227 # buck6d->(c3_c1o2@co2)|Zn4O_benz
       132     1     3  -0.72000000     9.979835     0.799646    13.813928 # buck6d->(o2_c1zn1@co2)|Zn4O_benz
       133     1     3  -0.72000000    16.050511     0.798518    12.213701 # buck6d->(o2_c1zn1@co2)|Zn4O_benz
       134     1     4   0.61000000    16.628480    26.029349    13.014664 # buck6d->(c3_c1o2@co2)|Zn4O_benz
       135     1     3  -0.72000000    16.048650    25.230870    13.814985 # buck6d->(o2_c1zn1@co2)|Zn4O_benz
       136     1     3  -0.72000000    13.813457     0.799940     9.978809 # buck6d->(o2_c1zn1@co2)|Zn4O_benz
       137     1     4   0.61000000    13.013972    26.029210     9.400938 # buck6d->(c3_c1o2@co2)|Zn4O_benz
       138     1     3  -0.72000000    12.215017    25.229445     9.980882 # buck6d->(o2_c1zn1@co2)|Zn4O_benz
       139     1     1  -1.78000000    26.029445    13.015025    13.015688 # buck6d->(o4_zn4@zn4o)|Zn4O_benz
       140     1     2   1.42000000     1.133555    11.881460    14.150078 # buck6d->(zn4_o4@zn4o)|Zn4O_benz
       141     1     2   1.42000000    24.895170    14.148709    14.149573 # buck6d->(zn4_o4@zn4o)|Zn4O_benz
       142     1     2   1.42000000    24.895242    11.881119    11.881017 # buck6d->(zn4_o4@zn4o)|Zn4O_benz
       143     1     2   1.42000000     1.133899    14.149682    11.882771 # buck6d->(zn4_o4@zn4o)|Zn4O_benz
       144     1     3  -0.72000000    25.228773    16.049831    13.814215 # buck6d->(o2_c1zn1@co2)|Zn4O_benz
       145     1     4   0.61000000    26.028474    16.629490    13.014959 # buck6d->(c3_c1o2@co2)|Zn4O_benz
       146     1     3  -0.72000000     0.799597    16.051290    12.216121 # buck6d->(o2_c1zn1@co2)|Zn4O_benz
       147     1     3  -0.72000000     0.799998    13.814652     9.981815 # buck6d->(o2_c1zn1@co2)|Zn4O_benz
       148     1     4   0.61000000     0.000350    13.015631     9.401822 # buck6d->(c3_c1o2@co2)|Zn4O_benz
       149     1     3  -0.72000000    25.229786    12.215935     9.979620 # buck6d->(o2_c1zn1@co2)|Zn4O_benz
       150     1     3  -0.72000000    25.228856     9.979343    12.214981 # buck6d->(o2_c1zn1@co2)|Zn4O_benz
       151     1     4   0.61000000    26.029861     9.401192    13.014045 # buck6d->(c3_c1o2@co2)|Zn4O_benz
       152     1     3  -0.72000000     0.799637     9.980849    13.813134 # buck6d->(o2_c1zn1@co2)|Zn4O_benz
       153     1     3  -0.72000000    22.993793    13.814849    13.815841 # buck6d->(o2_c1zn1@co2)|Zn4O_benz
       154     1     4   0.61000000    22.414917    13.015906    13.015248 # buck6d->(c3_c1o2@co2)|Zn4O_benz
       155     1     3  -0.72000000    22.993943    12.216534    12.215180 # buck6d->(o2_c1zn1@co2)|Zn4O_benz
       156     1     3  -0.72000000     3.035037    12.215926    13.816693 # buck6d->(o2_c1zn1@co2)|Zn4O_benz
       157     1     4   0.61000000     3.614067    13.015307    13.016638 # buck6d->(c3_c1o2@co2)|Zn4O_benz
       158     1     3  -0.72000000     3.035176    13.815104    12.216905 # buck6d->(o2_c1zn1@co2)|Zn4O_benz
       159     1     3  -0.72000000     0.798859    12.213753    16.051832 # buck6d->(o2_c1zn1@co2)|Zn4O_benz
       160     1     4   0.61000000    26.029386    13.014150    16.630166 # buck6d->(c3_c1o2@co2)|Zn4O_benz
       161     1     3  -0.72000000    25.230386    13.814198    16.050614 # buck6d->(o2_c1zn1@co2)|Zn4O_benz
       162     1     1  -1.78000000    13.014502    13.014634    13.015288 # buck6d->(o4_zn4@zn4o)|Zn4O_benz
       163     1     2   1.42000000    11.880314    14.148855    11.881441 # buck6d->(zn4_o4@zn4o)|Zn4O_benz
       164     1     2   1.42000000    14.148403    14.148600    14.149637 # buck6d->(zn4_o4@zn4o)|Zn4O_benz
       165     1     2   1.42000000    14.148818    11.880943    11.881001 # buck6d->(zn4_o4@zn4o)|Zn4O_benz
       166     1     2   1.42000000    11.880491    11.880246    14.149146 # buck6d->(zn4_o4@zn4o)|Zn4O_benz
       167     1     3  -0.72000000    13.814390    13.813307    16.050788 # buck6d->(o2_c1zn1@co2)|Zn4O_benz
       168     1     4   0.61000000    13.013952    13.014184    16.629633 # buck6d->(c3_c1o2@co2)|Zn4O_benz
       169     1     3  -0.72000000    12.213869    12.214831    16.050603 # buck6d->(o2_c1zn1@co2)|Zn4O_benz
       170     1     3  -0.72000000    12.215750     9.979109    13.814699 # buck6d->(o2_c1zn1@co2)|Zn4O_benz
       171     1     4   0.61000000    13.016257     9.400334    13.015583 # buck6d->(c3_c1o2@co2)|Zn4O_benz
       172     1     3  -0.72000000    13.816235     9.979447    12.216190 # buck6d->(o2_c1zn1@co2)|Zn4O_benz
       173     1     3  -0.72000000    13.813621    12.215088     9.979797 # buck6d->(o2_c1zn1@co2)|Zn4O_benz
       174     1     4   0.61000000    13.014841    13.015886     9.400967 # buck6d->(c3_c1o2@co2)|Zn4O_benz
       175     1     3  -0.72000000    12.215808    13.816267     9.980021 # buck6d->(o2_c1zn1@co2)|Zn4O_benz
       176     1     3  -0.72000000    16.049792    13.815304    13.814800 # buck6d->(o2_c1zn1@co2)|Zn4O_benz
       177     1     4   0.61000000    16.628831    13.016167    13.014515 # buck6d->(c3_c1o2@co2)|Zn4O_benz
       178     1     3  -0.72000000    16.050008    12.216692    12.214419 # buck6d->(o2_c1zn1@co2)|Zn4O_benz
       179     1     3  -0.72000000     9.979040    13.813258    12.214768 # buck6d->(o2_c1zn1@co2)|Zn4O_benz
       180     1     4   0.61000000     9.400162    13.013822    13.014879 # buck6d->(c3_c1o2@co2)|Zn4O_benz
       181     1     3  -0.72000000     9.979158    12.214127    13.814637 # buck6d->(o2_c1zn1@co2)|Zn4O_benz
       182     1     3  -0.72000000    12.213336    16.050083    12.217455 # buck6d->(o2_c1zn1@co2)|Zn4O_benz
       183     1     4   0.61000000    13.013179    16.628962    13.017153 # buck6d->(c3_c1o2@co2)|Zn4O_benz
       184     1     3  -0.72000000    13.813252    16.049970    13.816537 # buck6d->(o2_c1zn1@co2)|Zn4O_benz
       185     1     5  -0.12000000    25.157679     7.234539     0.876239 # buck6d->(c3_c2h1@ph)|benzene
       186     1     5  -0.12000000    25.152787     5.836935     0.880977 # buck6d->(c3_c2h1@ph)|benzene
       187     1     6   0.18000000    26.008807     5.133429     0.022656 # buck6d->(c3_c2h1@ph)|benzene
       188     1     5  -0.12000000     0.840051     5.825166    25.189515 # buck6d->(c3_c2h1@ph)|benzene
       189     1     5  -0.12000000     0.845112     7.222605    25.184586 # buck6d->(c3_c2h1@ph)|benzene
       190     1     6   0.18000000    26.018882     7.926412     0.012843 # buck6d->(c3_c2h1@ph)|benzene
       191     1     7   0.12000000    24.478346     5.302551     1.557078 # buck6d->(h1_c1@ph)|benzene
       192     1     7   0.12000000     1.510727     5.281693    24.517161 # buck6d->(h1_c1@ph)|benzene
       193     1     7   0.12000000     1.519961     7.756748    24.508155 # buck6d->(h1_c1@ph)|benzene
       194     1     7   0.12000000    24.486822     7.778355     1.548879 # buck6d->(h1_c1@ph)|benzene
       195     1     5  -0.12000000     0.852557    18.847845     0.866146 # buck6d->(c3_c2h1@ph)|benzene
       196     1     5  -0.12000000     0.845350    20.245222     0.873347 # buck6d->(c3_c2h1@ph)|benzene
       197     1     6   0.18000000    26.012815    20.943223     0.016653 # buck6d->(c3_c2h1@ph)|benzene
       198     1     5  -0.12000000    25.156327    20.245169    25.183938 # buck6d->(c3_c2h1@ph)|benzene
       199     1     5  -0.12000000    25.163578    18.847779    25.176781 # buck6d->(c3_c2h1@ph)|benzene
       200     1     6   0.18000000    26.025858    18.149232     0.003708 # buck6d->(c3_c2h1@ph)|benzene
       201     1     7   0.12000000     1.515211    20.784654     1.550255 # buck6d->(h1_c1@ph)|benzene
       202     1     7   0.12000000    24.479591    20.784564    24.513874 # buck6d->(h1_c1@ph)|benzene
       203     1     7   0.12000000    24.492266    18.309126    24.500876 # buck6d->(h1_c1@ph)|benzene
       204     1     7   0.12000000     1.528299    18.309247     1.537668 # buck6d->(h1_c1@ph)|benzene
       205     1     5  -0.12000000     0.849316    25.185949     7.222648 # buck6d->(c3_c2h1@ph)|benzene
       206     1     5  -0.12000000     0.844091    25.190931     5.825185 # buck6d->(c3_c2h1@ph)|benzene
       207     1     6   0.18000000    26.010247     0.021584     5.133569 # buck6d->(c3_c2h1@ph)|benzene
       208     1     5  -0.12000000    25.151954     0.877505     5.837214 # buck6d->(c3_c2h1@ph)|benzene
       209     1     5  -0.12000000    25.157015     0.872721     7.234801 # buck6d->(c3_c2h1@ph)|benzene
       210     1     6   0.18000000    26.020626     0.011658     7.926572 # buck6d->(c3_c2h1@ph)|benzene
       211     1     7   0.12000000     1.516674    24.520583     5.281595 # buck6d->(h1_c1@ph)|benzene
       212     1     7   0.12000000    24.475524     1.551722     5.302959 # buck6d->(h1_c1@ph)|benzene
       213     1     7   0.12000000    24.484295     1.543440     7.778696 # buck6d->(h1_c1@ph)|benzene
       214     1     7   0.12000000     1.526197    24.511498     7.756714 # buck6d->(h1_c1@ph)|benzene
       215     1     5  -0.12000000    25.171698    25.169571    18.847965 # buck6d->(c3_c2h1@ph)|benzene
       216     1     5  -0.12000000    25.164872    25.176508    20.245347 # buck6d->(c3_c2h1@ph)|benzene
       217     1     6   0.18000000    26.017628     0.013024    20.943255 # buck6d->(c3_c2h1@ph)|benzene
       218     1     5  -0.12000000     0.847088     0.872697    20.245114 # buck6d->(c3_c2h1@ph)|benzene
       219     1     5  -0.12000000     0.853860     0.865724    18.847724 # buck6d->(c3_c2h1@ph)|benzene
       220     1     6   0.18000000    -0.000190    26.030531    18.149261 # buck6d->(c3_c2h1@ph)|benzene
       221     1     7   0.12000000    24.491196    24.503453    20.784853 # buck6d->(h1_c1@ph)|benzene
       222     1     7   0.12000000     1.514552     1.552053    20.784438 # buck6d->(h1_c1@ph)|benzene
       223     1     7   0.12000000     1.526875     1.539873    18.308994 # buck6d->(h1_c1@ph)|benzene
       224     1     7   0.12000000    24.503128    24.490850    18.309440 # buck6d->(h1_c1@ph)|benzene
       225     1     5  -0.12000000    18.795244     0.873830     0.872168 # buck6d->(c3_c2h1@ph)|benzene
       226     1     5  -0.12000000    20.192841     0.879004     0.876930 # buck6d->(c3_c2h1@ph)|benzene
       227     1     6   0.18000000    20.896546     0.023219     0.018546 # buck6d->(c3_c2h1@ph)|benzene
       228     1     5  -0.12000000    20.204979    25.192644    25.184589 # buck6d->(c3_c2h1@ph)|benzene
       229     1     5  -0.12000000    18.807521    25.187287    25.179648 # buck6d->(c3_c2h1@ph)|benzene
       230     1     6   0.18000000    18.103527     0.012606     0.008668 # buck6d->(c3_c2h1@ph)|benzene
       231     1     7   0.12000000    20.727058     1.553329     1.553281 # buck6d->(h1_c1@ph)|benzene
       232     1     7   0.12000000    20.748607    24.522565    24.511768 # buck6d->(h1_c1@ph)|benzene
       233     1     7   0.12000000    18.273511    24.512805    24.502753 # buck6d->(h1_c1@ph)|benzene
       234     1     7   0.12000000    18.251303     1.544351     1.545045 # buck6d->(h1_c1@ph)|benzene
       235     1     5  -0.12000000     5.784706     0.873216    25.183418 # buck6d->(c3_c2h1@ph)|benzene
       236     1     5  -0.12000000     7.182098     0.866288    25.176402 # buck6d->(c3_c2h1@ph)|benzene
       237     1     6   0.18000000     7.880736     0.002453    26.031736 # buck6d->(c3_c2h1@ph)|benzene
       238     1     5  -0.12000000     7.182202    25.173418     0.861864 # buck6d->(c3_c2h1@ph)|benzene
       239     1     5  -0.12000000     5.784821    25.180301     0.868925 # buck6d->(c3_c2h1@ph)|benzene
       240     1     6   0.18000000     5.086733     0.014885     0.014363 # buck6d->(c3_c2h1@ph)|benzene
       241     1     7   0.12000000     7.720684     1.539204    24.502040 # buck6d->(h1_c1@ph)|benzene
       242     1     7   0.12000000     7.720870    24.496128     1.531770 # buck6d->(h1_c1@ph)|benzene
       243     1     7   0.12000000     5.245462    24.508655     1.544121 # buck6d->(h1_c1@ph)|benzene
       244     1     7   0.12000000     5.245238     1.551322    24.514800 # buck6d->(h1_c1@ph)|benzene
       245     1     5  -0.12000000    13.873037     7.204033     0.858043 # buck6d->(c3_c2h1@ph)|benzene
       246     1     5  -0.12000000    13.869482     5.806628     0.857442 # buck6d->(c3_c2h1@ph)|benzene
       247     1     6   0.18000000    13.008963     5.110938    26.026411 # buck6d->(c3_c2h1@ph)|benzene
       248     1     5  -0.12000000    12.154680     5.811405    25.163451 # buck6d->(c3_c2h1@ph)|benzene
       249     1     5  -0.12000000    12.158193     7.208728    25.164138 # buck6d->(c3_c2h1@ph)|benzene
       250     1     6   0.18000000    13.016327     7.904363    26.027311 # buck6d->(c3_c2h1@ph)|benzene
       251     1     7   0.12000000    14.540484     5.265855     1.532093 # buck6d->(h1_c1@ph)|benzene
       252     1     7   0.12000000    11.482318     5.274351    24.487257 # buck6d->(h1_c1@ph)|benzene
       253     1     7   0.12000000    11.488186     7.749769    24.488735 # buck6d->(h1_c1@ph)|benzene
       254     1     7   0.12000000    14.546368     7.741268     1.533195 # buck6d->(h1_c1@ph)|benzene
       255     1     5  -0.12000000    12.151909    18.821846     0.859212 # buck6d->(c3_c2h1@ph)|benzene
       256     1     5  -0.12000000    12.149541    20.219157     0.859864 # buck6d->(c3_c2h1@ph)|benzene
       257     1     6   0.18000000    13.008621    20.919009    26.031135 # buck6d->(c3_c2h1@ph)|benzene
       258     1     5  -0.12000000    13.871346    20.222793    25.172841 # buck6d->(c3_c2h1@ph)|benzene
       259     1     5  -0.12000000    13.873701    18.825377    25.172148 # buck6d->(c3_c2h1@ph)|benzene
       260     1     6   0.18000000    13.013494    18.125633    26.029994 # buck6d->(c3_c2h1@ph)|benzene
       261     1     7   0.12000000    11.474516    20.756734     1.533006 # buck6d->(h1_c1@ph)|benzene
       262     1     7   0.12000000    14.545174    20.763281    24.500801 # buck6d->(h1_c1@ph)|benzene
       263     1     7   0.12000000    14.549278    18.287728    24.499595 # buck6d->(h1_c1@ph)|benzene
       264     1     7   0.12000000    11.478585    18.281434     1.531826 # buck6d->(h1_c1@ph)|benzene
       265     1     5  -0.12000000    12.149232    25.165786     5.811398 # buck6d->(c3_c2h1@ph)|benzene
       266     1     5  -0.12000000    12.152632    25.166421     7.208749 # buck6d->(c3_c2h1@ph)|benzene
       267     1     6   0.18000000    13.012653    26.027651     7.904485 # buck6d->(c3_c2h1@ph)|benzene